title = "Output at time = 0 "
variables = "x", "y","rho", "u", "v","T", "p",
zone E=18400, N=18961, DATAPACKING=BLOCK, ZONETYPE=FEQUADRILATERAL



-6.0000000e+00 -6.0000000e+00 -6.0000000e+00 -6.0000000e+00 -6.0000000e+00 -6.0000000e+00 -6.0000000e+00 -6.0000000e+00 -6.0000000e+00 -6.0000000e+00 -6.0000000e+00 -6.0000000e+00 -6.0000000e+00 -6.0000000e+00 -6.0000000e+00 -6.0000000e+00 -6.0000000e+00 -6.0000000e+00 -6.0000000e+00 -6.0000000e+00 -6.0000000e+00 -5.9500000e+00 -5.9500000e+00 -5.9500000e+00 -5.9500000e+00 -5.9500000e+00 -5.9500000e+00 -5.9500000e+00 -5.9500000e+00 -5.9500000e+00 -5.9500000e+00 -5.9500000e+00 -5.9500000e+00 -5.9500000e+00 -5.9500000e+00 -5.9500000e+00 -5.9500000e+00 -5.9500000e+00 -5.9500000e+00 -5.9500000e+00 -5.9500000e+00 -5.9500000e+00 -5.9000000e+00 -5.9000000e+00 -5.9000000e+00 -5.9000000e+00 -5.9000000e+00 -5.9000000e+00 -5.9000000e+00 -5.9000000e+00 -5.9000000e+00 -5.9000000e+00 -5.9000000e+00 -5.9000000e+00 -5.9000000e+00 -5.9000000e+00 -5.9000000e+00 -5.9000000e+00 -5.9000000e+00 -5.9000000e+00 -5.9000000e+00 -5.9000000e+00 -5.9000000e+00 -5.8500000e+00 -5.8500000e+00 -5.8500000e+00 -5.8500000e+00 -5.8500000e+00 -5.8500000e+00 -5.8500000e+00 -5.8500000e+00 -5.8500000e+00 -5.8500000e+00 -5.8500000e+00 -5.8500000e+00 -5.8500000e+00 -5.8500000e+00 -5.8500000e+00 -5.8500000e+00 -5.8500000e+00 -5.8500000e+00 -5.8500000e+00 -5.8500000e+00 -5.8500000e+00 -5.8000000e+00 -5.8000000e+00 -5.8000000e+00 -5.8000000e+00 -5.8000000e+00 -5.8000000e+00 -5.8000000e+00 -5.8000000e+00 -5.8000000e+00 -5.8000000e+00 -5.8000000e+00 -5.8000000e+00 -5.8000000e+00 -5.8000000e+00 -5.8000000e+00 -5.8000000e+00 -5.8000000e+00 
-5.8000000e+00 -5.8000000e+00 -5.8000000e+00 -5.8000000e+00 -5.7500000e+00 -5.7500000e+00 -5.7500000e+00 -5.7500000e+00 -5.7500000e+00 -5.7500000e+00 -5.7500000e+00 -5.7500000e+00 -5.7500000e+00 -5.7500000e+00 -5.7500000e+00 -5.7500000e+00 -5.7500000e+00 -5.7500000e+00 -5.7500000e+00 -5.7500000e+00 -5.7500000e+00 -5.7500000e+00 -5.7500000e+00 -5.7500000e+00 -5.7500000e+00 -5.7000000e+00 -5.7000000e+00 -5.7000000e+00 -5.7000000e+00 -5.7000000e+00 -5.7000000e+00 -5.7000000e+00 -5.7000000e+00 -5.7000000e+00 -5.7000000e+00 -5.7000000e+00 -5.7000000e+00 -5.7000000e+00 -5.7000000e+00 -5.7000000e+00 -5.7000000e+00 -5.7000000e+00 -5.7000000e+00 -5.7000000e+00 -5.7000000e+00 -5.7000000e+00 -5.6500000e+00 -5.6500000e+00 -5.6500000e+00 -5.6500000e+00 -5.6500000e+00 -5.6500000e+00 -5.6500000e+00 -5.6500000e+00 -5.6500000e+00 -5.6500000e+00 -5.6500000e+00 -5.6500000e+00 -5.6500000e+00 -5.6500000e+00 -5.6500000e+00 -5.6500000e+00 -5.6500000e+00 -5.6500000e+00 -5.6500000e+00 -5.6500000e+00 -5.6500000e+00 -5.6000000e+00 -5.6000000e+00 -5.6000000e+00 -5.6000000e+00 -5.6000000e+00 -5.6000000e+00 -5.6000000e+00 -5.6000000e+00 -5.6000000e+00 -5.6000000e+00 -5.6000000e+00 -5.6000000e+00 -5.6000000e+00 -5.6000000e+00 -5.6000000e+00 -5.6000000e+00 -5.6000000e+00 -5.6000000e+00 -5.6000000e+00 -5.6000000e+00 -5.6000000e+00 -5.5500000e+00 -5.5500000e+00 -5.5500000e+00 -5.5500000e+00 -5.5500000e+00 -5.5500000e+00 -5.5500000e+00 -5.5500000e+00 -5.5500000e+00 -5.5500000e+00 -5.5500000e+00 -5.5500000e+00 
-5.5500000e+00 -5.5500000e+00 -5.5500000e+00 -5.5500000e+00 -5.5500000e+00 -5.5500000e+00 -5.5500000e+00 -5.5500000e+00 -5.5500000e+00 -5.5000000e+00 -5.5000000e+00 -5.5000000e+00 -5.5000000e+00 -5.5000000e+00 -5.5000000e+00 -5.5000000e+00 -5.5000000e+00 -5.5000000e+00 -5.5000000e+00 -5.5000000e+00 -5.5000000e+00 -5.5000000e+00 -5.5000000e+00 -5.5000000e+00 -5.5000000e+00 -5.5000000e+00 -5.5000000e+00 -5.5000000e+00 -5.5000000e+00 -5.5000000e+00 -5.4500000e+00 -5.4500000e+00 -5.4500000e+00 -5.4500000e+00 -5.4500000e+00 -5.4500000e+00 -5.4500000e+00 -5.4500000e+00 -5.4500000e+00 -5.4500000e+00 -5.4500000e+00 -5.4500000e+00 -5.4500000e+00 -5.4500000e+00 -5.4500000e+00 -5.4500000e+00 -5.4500000e+00 -5.4500000e+00 -5.4500000e+00 -5.4500000e+00 -5.4500000e+00 -5.4000000e+00 -5.4000000e+00 -5.4000000e+00 -5.4000000e+00 -5.4000000e+00 -5.4000000e+00 -5.4000000e+00 -5.4000000e+00 -5.4000000e+00 -5.4000000e+00 -5.4000000e+00 -5.4000000e+00 -5.4000000e+00 -5.4000000e+00 -5.4000000e+00 -5.4000000e+00 -5.4000000e+00 -5.4000000e+00 -5.4000000e+00 -5.4000000e+00 -5.4000000e+00 -5.3500000e+00 -5.3500000e+00 -5.3500000e+00 -5.3500000e+00 -5.3500000e+00 -5.3500000e+00 -5.3500000e+00 -5.3500000e+00 -5.3500000e+00 -5.3500000e+00 -5.3500000e+00 -5.3500000e+00 -5.3500000e+00 -5.3500000e+00 -5.3500000e+00 -5.3500000e+00 -5.3500000e+00 -5.3500000e+00 -5.3500000e+00 -5.3500000e+00 -5.3500000e+00 -5.3000000e+00 -5.3000000e+00 -5.3000000e+00 -5.3000000e+00 -5.3000000e+00 -5.3000000e+00 -5.3000000e+00 
-5.3000000e+00 -5.3000000e+00 -5.3000000e+00 -5.3000000e+00 -5.3000000e+00 -5.3000000e+00 -5.3000000e+00 -5.3000000e+00 -5.3000000e+00 -5.3000000e+00 -5.3000000e+00 -5.3000000e+00 -5.3000000e+00 -5.3000000e+00 -5.2500000e+00 -5.2500000e+00 -5.2500000e+00 -5.2500000e+00 -5.2500000e+00 -5.2500000e+00 -5.2500000e+00 -5.2500000e+00 -5.2500000e+00 -5.2500000e+00 -5.2500000e+00 -5.2500000e+00 -5.2500000e+00 -5.2500000e+00 -5.2500000e+00 -5.2500000e+00 -5.2500000e+00 -5.2500000e+00 -5.2500000e+00 -5.2500000e+00 -5.2500000e+00 -5.2000000e+00 -5.2000000e+00 -5.2000000e+00 -5.2000000e+00 -5.2000000e+00 -5.2000000e+00 -5.2000000e+00 -5.2000000e+00 -5.2000000e+00 -5.2000000e+00 -5.2000000e+00 -5.2000000e+00 -5.2000000e+00 -5.2000000e+00 -5.2000000e+00 -5.2000000e+00 -5.2000000e+00 -5.2000000e+00 -5.2000000e+00 -5.2000000e+00 -5.2000000e+00 -5.1500000e+00 -5.1500000e+00 -5.1500000e+00 -5.1500000e+00 -5.1500000e+00 -5.1500000e+00 -5.1500000e+00 -5.1500000e+00 -5.1500000e+00 -5.1500000e+00 -5.1500000e+00 -5.1500000e+00 -5.1500000e+00 -5.1500000e+00 -5.1500000e+00 -5.1500000e+00 -5.1500000e+00 -5.1500000e+00 -5.1500000e+00 -5.1500000e+00 -5.1500000e+00 -5.1000000e+00 -5.1000000e+00 -5.1000000e+00 -5.1000000e+00 -5.1000000e+00 -5.1000000e+00 -5.1000000e+00 -5.1000000e+00 -5.1000000e+00 -5.1000000e+00 -5.1000000e+00 -5.1000000e+00 -5.1000000e+00 -5.1000000e+00 -5.1000000e+00 -5.1000000e+00 -5.1000000e+00 -5.1000000e+00 -5.1000000e+00 -5.1000000e+00 -5.1000000e+00 -5.0500000e+00 -5.0500000e+00 
-5.0500000e+00 -5.0500000e+00 -5.0500000e+00 -5.0500000e+00 -5.0500000e+00 -5.0500000e+00 -5.0500000e+00 -5.0500000e+00 -5.0500000e+00 -5.0500000e+00 -5.0500000e+00 -5.0500000e+00 -5.0500000e+00 -5.0500000e+00 -5.0500000e+00 -5.0500000e+00 -5.0500000e+00 -5.0500000e+00 -5.0500000e+00 -5.0000000e+00 -5.0000000e+00 -5.0000000e+00 -5.0000000e+00 -5.0000000e+00 -5.0000000e+00 -5.0000000e+00 -5.0000000e+00 -5.0000000e+00 -5.0000000e+00 -5.0000000e+00 -5.0000000e+00 -5.0000000e+00 -5.0000000e+00 -5.0000000e+00 -5.0000000e+00 -5.0000000e+00 -5.0000000e+00 -5.0000000e+00 -5.0000000e+00 -5.0000000e+00 -4.9500000e+00 -4.9500000e+00 -4.9500000e+00 -4.9500000e+00 -4.9500000e+00 -4.9500000e+00 -4.9500000e+00 -4.9500000e+00 -4.9500000e+00 -4.9500000e+00 -4.9500000e+00 -4.9500000e+00 -4.9500000e+00 -4.9500000e+00 -4.9500000e+00 -4.9500000e+00 -4.9500000e+00 -4.9500000e+00 -4.9500000e+00 -4.9500000e+00 -4.9500000e+00 -4.9000000e+00 -4.9000000e+00 -4.9000000e+00 -4.9000000e+00 -4.9000000e+00 -4.9000000e+00 -4.9000000e+00 -4.9000000e+00 -4.9000000e+00 -4.9000000e+00 -4.9000000e+00 -4.9000000e+00 -4.9000000e+00 -4.9000000e+00 -4.9000000e+00 -4.9000000e+00 -4.9000000e+00 -4.9000000e+00 -4.9000000e+00 -4.9000000e+00 -4.9000000e+00 -4.8500000e+00 -4.8500000e+00 -4.8500000e+00 -4.8500000e+00 -4.8500000e+00 -4.8500000e+00 -4.8500000e+00 -4.8500000e+00 -4.8500000e+00 -4.8500000e+00 -4.8500000e+00 -4.8500000e+00 -4.8500000e+00 -4.8500000e+00 -4.8500000e+00 -4.8500000e+00 -4.8500000e+00 -4.8500000e+00 
-4.8500000e+00 -4.8500000e+00 -4.8500000e+00 -4.8000000e+00 -4.8000000e+00 -4.8000000e+00 -4.8000000e+00 -4.8000000e+00 -4.8000000e+00 -4.8000000e+00 -4.8000000e+00 -4.8000000e+00 -4.8000000e+00 -4.8000000e+00 -4.8000000e+00 -4.8000000e+00 -4.8000000e+00 -4.8000000e+00 -4.8000000e+00 -4.8000000e+00 -4.8000000e+00 -4.8000000e+00 -4.8000000e+00 -4.8000000e+00 -4.7500000e+00 -4.7500000e+00 -4.7500000e+00 -4.7500000e+00 -4.7500000e+00 -4.7500000e+00 -4.7500000e+00 -4.7500000e+00 -4.7500000e+00 -4.7500000e+00 -4.7500000e+00 -4.7500000e+00 -4.7500000e+00 -4.7500000e+00 -4.7500000e+00 -4.7500000e+00 -4.7500000e+00 -4.7500000e+00 -4.7500000e+00 -4.7500000e+00 -4.7500000e+00 -4.7000000e+00 -4.7000000e+00 -4.7000000e+00 -4.7000000e+00 -4.7000000e+00 -4.7000000e+00 -4.7000000e+00 -4.7000000e+00 -4.7000000e+00 -4.7000000e+00 -4.7000000e+00 -4.7000000e+00 -4.7000000e+00 -4.7000000e+00 -4.7000000e+00 -4.7000000e+00 -4.7000000e+00 -4.7000000e+00 -4.7000000e+00 -4.7000000e+00 -4.7000000e+00 -4.6500000e+00 -4.6500000e+00 -4.6500000e+00 -4.6500000e+00 -4.6500000e+00 -4.6500000e+00 -4.6500000e+00 -4.6500000e+00 -4.6500000e+00 -4.6500000e+00 -4.6500000e+00 -4.6500000e+00 -4.6500000e+00 -4.6500000e+00 -4.6500000e+00 -4.6500000e+00 -4.6500000e+00 -4.6500000e+00 -4.6500000e+00 -4.6500000e+00 -4.6500000e+00 -4.6000000e+00 -4.6000000e+00 -4.6000000e+00 -4.6000000e+00 -4.6000000e+00 -4.6000000e+00 -4.6000000e+00 -4.6000000e+00 -4.6000000e+00 -4.6000000e+00 -4.6000000e+00 -4.6000000e+00 -4.6000000e+00 
-4.6000000e+00 -4.6000000e+00 -4.6000000e+00 -4.6000000e+00 -4.6000000e+00 -4.6000000e+00 -4.6000000e+00 -4.6000000e+00 -4.5500000e+00 -4.5500000e+00 -4.5500000e+00 -4.5500000e+00 -4.5500000e+00 -4.5500000e+00 -4.5500000e+00 -4.5500000e+00 -4.5500000e+00 -4.5500000e+00 -4.5500000e+00 -4.5500000e+00 -4.5500000e+00 -4.5500000e+00 -4.5500000e+00 -4.5500000e+00 -4.5500000e+00 -4.5500000e+00 -4.5500000e+00 -4.5500000e+00 -4.5500000e+00 -4.5000000e+00 -4.5000000e+00 -4.5000000e+00 -4.5000000e+00 -4.5000000e+00 -4.5000000e+00 -4.5000000e+00 -4.5000000e+00 -4.5000000e+00 -4.5000000e+00 -4.5000000e+00 -4.5000000e+00 -4.5000000e+00 -4.5000000e+00 -4.5000000e+00 -4.5000000e+00 -4.5000000e+00 -4.5000000e+00 -4.5000000e+00 -4.5000000e+00 -4.5000000e+00 -4.4500000e+00 -4.4500000e+00 -4.4500000e+00 -4.4500000e+00 -4.4500000e+00 -4.4500000e+00 -4.4500000e+00 -4.4500000e+00 -4.4500000e+00 -4.4500000e+00 -4.4500000e+00 -4.4500000e+00 -4.4500000e+00 -4.4500000e+00 -4.4500000e+00 -4.4500000e+00 -4.4500000e+00 -4.4500000e+00 -4.4500000e+00 -4.4500000e+00 -4.4500000e+00 -4.4000000e+00 -4.4000000e+00 -4.4000000e+00 -4.4000000e+00 -4.4000000e+00 -4.4000000e+00 -4.4000000e+00 -4.4000000e+00 -4.4000000e+00 -4.4000000e+00 -4.4000000e+00 -4.4000000e+00 -4.4000000e+00 -4.4000000e+00 -4.4000000e+00 -4.4000000e+00 -4.4000000e+00 -4.4000000e+00 -4.4000000e+00 -4.4000000e+00 -4.4000000e+00 -4.3500000e+00 -4.3500000e+00 -4.3500000e+00 -4.3500000e+00 -4.3500000e+00 -4.3500000e+00 -4.3500000e+00 -4.3500000e+00 
-4.3500000e+00 -4.3500000e+00 -4.3500000e+00 -4.3500000e+00 -4.3500000e+00 -4.3500000e+00 -4.3500000e+00 -4.3500000e+00 -4.3500000e+00 -4.3500000e+00 -4.3500000e+00 -4.3500000e+00 -4.3500000e+00 -4.3000000e+00 -4.3000000e+00 -4.3000000e+00 -4.3000000e+00 -4.3000000e+00 -4.3000000e+00 -4.3000000e+00 -4.3000000e+00 -4.3000000e+00 -4.3000000e+00 -4.3000000e+00 -4.3000000e+00 -4.3000000e+00 -4.3000000e+00 -4.3000000e+00 -4.3000000e+00 -4.3000000e+00 -4.3000000e+00 -4.3000000e+00 -4.3000000e+00 -4.3000000e+00 -4.2500000e+00 -4.2500000e+00 -4.2500000e+00 -4.2500000e+00 -4.2500000e+00 -4.2500000e+00 -4.2500000e+00 -4.2500000e+00 -4.2500000e+00 -4.2500000e+00 -4.2500000e+00 -4.2500000e+00 -4.2500000e+00 -4.2500000e+00 -4.2500000e+00 -4.2500000e+00 -4.2500000e+00 -4.2500000e+00 -4.2500000e+00 -4.2500000e+00 -4.2500000e+00 -4.2000000e+00 -4.2000000e+00 -4.2000000e+00 -4.2000000e+00 -4.2000000e+00 -4.2000000e+00 -4.2000000e+00 -4.2000000e+00 -4.2000000e+00 -4.2000000e+00 -4.2000000e+00 -4.2000000e+00 -4.2000000e+00 -4.2000000e+00 -4.2000000e+00 -4.2000000e+00 -4.2000000e+00 -4.2000000e+00 -4.2000000e+00 -4.2000000e+00 -4.2000000e+00 -4.1500000e+00 -4.1500000e+00 -4.1500000e+00 -4.1500000e+00 -4.1500000e+00 -4.1500000e+00 -4.1500000e+00 -4.1500000e+00 -4.1500000e+00 -4.1500000e+00 -4.1500000e+00 -4.1500000e+00 -4.1500000e+00 -4.1500000e+00 -4.1500000e+00 -4.1500000e+00 -4.1500000e+00 -4.1500000e+00 -4.1500000e+00 -4.1500000e+00 -4.1500000e+00 -4.1000000e+00 -4.1000000e+00 -4.1000000e+00 
-4.1000000e+00 -4.1000000e+00 -4.1000000e+00 -4.1000000e+00 -4.1000000e+00 -4.1000000e+00 -4.1000000e+00 -4.1000000e+00 -4.1000000e+00 -4.1000000e+00 -4.1000000e+00 -4.1000000e+00 -4.1000000e+00 -4.1000000e+00 -4.1000000e+00 -4.1000000e+00 -4.1000000e+00 -4.1000000e+00 -4.0500000e+00 -4.0500000e+00 -4.0500000e+00 -4.0500000e+00 -4.0500000e+00 -4.0500000e+00 -4.0500000e+00 -4.0500000e+00 -4.0500000e+00 -4.0500000e+00 -4.0500000e+00 -4.0500000e+00 -4.0500000e+00 -4.0500000e+00 -4.0500000e+00 -4.0500000e+00 -4.0500000e+00 -4.0500000e+00 -4.0500000e+00 -4.0500000e+00 -4.0500000e+00 -4.0000000e+00 -4.0000000e+00 -4.0000000e+00 -4.0000000e+00 -4.0000000e+00 -4.0000000e+00 -4.0000000e+00 -4.0000000e+00 -4.0000000e+00 -4.0000000e+00 -4.0000000e+00 -4.0000000e+00 -4.0000000e+00 -4.0000000e+00 -4.0000000e+00 -4.0000000e+00 -4.0000000e+00 -4.0000000e+00 -4.0000000e+00 -4.0000000e+00 -4.0000000e+00 -3.9500000e+00 -3.9500000e+00 -3.9500000e+00 -3.9500000e+00 -3.9500000e+00 -3.9500000e+00 -3.9500000e+00 -3.9500000e+00 -3.9500000e+00 -3.9500000e+00 -3.9500000e+00 -3.9500000e+00 -3.9500000e+00 -3.9500000e+00 -3.9500000e+00 -3.9500000e+00 -3.9500000e+00 -3.9500000e+00 -3.9500000e+00 -3.9500000e+00 -3.9500000e+00 -3.9000000e+00 -3.9000000e+00 -3.9000000e+00 -3.9000000e+00 -3.9000000e+00 -3.9000000e+00 -3.9000000e+00 -3.9000000e+00 -3.9000000e+00 -3.9000000e+00 -3.9000000e+00 -3.9000000e+00 -3.9000000e+00 -3.9000000e+00 -3.9000000e+00 -3.9000000e+00 -3.9000000e+00 -3.9000000e+00 -3.9000000e+00 
-3.9000000e+00 -3.9000000e+00 -3.8500000e+00 -3.8500000e+00 -3.8500000e+00 -3.8500000e+00 -3.8500000e+00 -3.8500000e+00 -3.8500000e+00 -3.8500000e+00 -3.8500000e+00 -3.8500000e+00 -3.8500000e+00 -3.8500000e+00 -3.8500000e+00 -3.8500000e+00 -3.8500000e+00 -3.8500000e+00 -3.8500000e+00 -3.8500000e+00 -3.8500000e+00 -3.8500000e+00 -3.8500000e+00 -3.8000000e+00 -3.8000000e+00 -3.8000000e+00 -3.8000000e+00 -3.8000000e+00 -3.8000000e+00 -3.8000000e+00 -3.8000000e+00 -3.8000000e+00 -3.8000000e+00 -3.8000000e+00 -3.8000000e+00 -3.8000000e+00 -3.8000000e+00 -3.8000000e+00 -3.8000000e+00 -3.8000000e+00 -3.8000000e+00 -3.8000000e+00 -3.8000000e+00 -3.8000000e+00 -3.7500000e+00 -3.7500000e+00 -3.7500000e+00 -3.7500000e+00 -3.7500000e+00 -3.7500000e+00 -3.7500000e+00 -3.7500000e+00 -3.7500000e+00 -3.7500000e+00 -3.7500000e+00 -3.7500000e+00 -3.7500000e+00 -3.7500000e+00 -3.7500000e+00 -3.7500000e+00 -3.7500000e+00 -3.7500000e+00 -3.7500000e+00 -3.7500000e+00 -3.7500000e+00 -3.7000000e+00 -3.7000000e+00 -3.7000000e+00 -3.7000000e+00 -3.7000000e+00 -3.7000000e+00 -3.7000000e+00 -3.7000000e+00 -3.7000000e+00 -3.7000000e+00 -3.7000000e+00 -3.7000000e+00 -3.7000000e+00 -3.7000000e+00 -3.7000000e+00 -3.7000000e+00 -3.7000000e+00 -3.7000000e+00 -3.7000000e+00 -3.7000000e+00 -3.7000000e+00 -3.6500000e+00 -3.6500000e+00 -3.6500000e+00 -3.6500000e+00 -3.6500000e+00 -3.6500000e+00 -3.6500000e+00 -3.6500000e+00 -3.6500000e+00 -3.6500000e+00 -3.6500000e+00 -3.6500000e+00 -3.6500000e+00 -3.6500000e+00 
-3.6500000e+00 -3.6500000e+00 -3.6500000e+00 -3.6500000e+00 -3.6500000e+00 -3.6500000e+00 -3.6500000e+00 -3.6000000e+00 -3.6000000e+00 -3.6000000e+00 -3.6000000e+00 -3.6000000e+00 -3.6000000e+00 -3.6000000e+00 -3.6000000e+00 -3.6000000e+00 -3.6000000e+00 -3.6000000e+00 -3.6000000e+00 -3.6000000e+00 -3.6000000e+00 -3.6000000e+00 -3.6000000e+00 -3.6000000e+00 -3.6000000e+00 -3.6000000e+00 -3.6000000e+00 -3.6000000e+00 -3.5500000e+00 -3.5500000e+00 -3.5500000e+00 -3.5500000e+00 -3.5500000e+00 -3.5500000e+00 -3.5500000e+00 -3.5500000e+00 -3.5500000e+00 -3.5500000e+00 -3.5500000e+00 -3.5500000e+00 -3.5500000e+00 -3.5500000e+00 -3.5500000e+00 -3.5500000e+00 -3.5500000e+00 -3.5500000e+00 -3.5500000e+00 -3.5500000e+00 -3.5500000e+00 -3.5000000e+00 -3.5000000e+00 -3.5000000e+00 -3.5000000e+00 -3.5000000e+00 -3.5000000e+00 -3.5000000e+00 -3.5000000e+00 -3.5000000e+00 -3.5000000e+00 -3.5000000e+00 -3.5000000e+00 -3.5000000e+00 -3.5000000e+00 -3.5000000e+00 -3.5000000e+00 -3.5000000e+00 -3.5000000e+00 -3.5000000e+00 -3.5000000e+00 -3.5000000e+00 -3.4500000e+00 -3.4500000e+00 -3.4500000e+00 -3.4500000e+00 -3.4500000e+00 -3.4500000e+00 -3.4500000e+00 -3.4500000e+00 -3.4500000e+00 -3.4500000e+00 -3.4500000e+00 -3.4500000e+00 -3.4500000e+00 -3.4500000e+00 -3.4500000e+00 -3.4500000e+00 -3.4500000e+00 -3.4500000e+00 -3.4500000e+00 -3.4500000e+00 -3.4500000e+00 -3.4000000e+00 -3.4000000e+00 -3.4000000e+00 -3.4000000e+00 -3.4000000e+00 -3.4000000e+00 -3.4000000e+00 -3.4000000e+00 -3.4000000e+00 
-3.4000000e+00 -3.4000000e+00 -3.4000000e+00 -3.4000000e+00 -3.4000000e+00 -3.4000000e+00 -3.4000000e+00 -3.4000000e+00 -3.4000000e+00 -3.4000000e+00 -3.4000000e+00 -3.4000000e+00 -3.3500000e+00 -3.3500000e+00 -3.3500000e+00 -3.3500000e+00 -3.3500000e+00 -3.3500000e+00 -3.3500000e+00 -3.3500000e+00 -3.3500000e+00 -3.3500000e+00 -3.3500000e+00 -3.3500000e+00 -3.3500000e+00 -3.3500000e+00 -3.3500000e+00 -3.3500000e+00 -3.3500000e+00 -3.3500000e+00 -3.3500000e+00 -3.3500000e+00 -3.3500000e+00 -3.3000000e+00 -3.3000000e+00 -3.3000000e+00 -3.3000000e+00 -3.3000000e+00 -3.3000000e+00 -3.3000000e+00 -3.3000000e+00 -3.3000000e+00 -3.3000000e+00 -3.3000000e+00 -3.3000000e+00 -3.3000000e+00 -3.3000000e+00 -3.3000000e+00 -3.3000000e+00 -3.3000000e+00 -3.3000000e+00 -3.3000000e+00 -3.3000000e+00 -3.3000000e+00 -3.2500000e+00 -3.2500000e+00 -3.2500000e+00 -3.2500000e+00 -3.2500000e+00 -3.2500000e+00 -3.2500000e+00 -3.2500000e+00 -3.2500000e+00 -3.2500000e+00 -3.2500000e+00 -3.2500000e+00 -3.2500000e+00 -3.2500000e+00 -3.2500000e+00 -3.2500000e+00 -3.2500000e+00 -3.2500000e+00 -3.2500000e+00 -3.2500000e+00 -3.2500000e+00 -3.2000000e+00 -3.2000000e+00 -3.2000000e+00 -3.2000000e+00 -3.2000000e+00 -3.2000000e+00 -3.2000000e+00 -3.2000000e+00 -3.2000000e+00 -3.2000000e+00 -3.2000000e+00 -3.2000000e+00 -3.2000000e+00 -3.2000000e+00 -3.2000000e+00 -3.2000000e+00 -3.2000000e+00 -3.2000000e+00 -3.2000000e+00 -3.2000000e+00 -3.2000000e+00 -3.1500000e+00 -3.1500000e+00 -3.1500000e+00 -3.1500000e+00 
-3.1500000e+00 -3.1500000e+00 -3.1500000e+00 -3.1500000e+00 -3.1500000e+00 -3.1500000e+00 -3.1500000e+00 -3.1500000e+00 -3.1500000e+00 -3.1500000e+00 -3.1500000e+00 -3.1500000e+00 -3.1500000e+00 -3.1500000e+00 -3.1500000e+00 -3.1500000e+00 -3.1500000e+00 -3.1000000e+00 -3.1000000e+00 -3.1000000e+00 -3.1000000e+00 -3.1000000e+00 -3.1000000e+00 -3.1000000e+00 -3.1000000e+00 -3.1000000e+00 -3.1000000e+00 -3.1000000e+00 -3.1000000e+00 -3.1000000e+00 -3.1000000e+00 -3.1000000e+00 -3.1000000e+00 -3.1000000e+00 -3.1000000e+00 -3.1000000e+00 -3.1000000e+00 -3.1000000e+00 -3.0500000e+00 -3.0500000e+00 -3.0500000e+00 -3.0500000e+00 -3.0500000e+00 -3.0500000e+00 -3.0500000e+00 -3.0500000e+00 -3.0500000e+00 -3.0500000e+00 -3.0500000e+00 -3.0500000e+00 -3.0500000e+00 -3.0500000e+00 -3.0500000e+00 -3.0500000e+00 -3.0500000e+00 -3.0500000e+00 -3.0500000e+00 -3.0500000e+00 -3.0500000e+00 -3.0000000e+00 -3.0000000e+00 -3.0000000e+00 -3.0000000e+00 -3.0000000e+00 -3.0000000e+00 -3.0000000e+00 -3.0000000e+00 -3.0000000e+00 -3.0000000e+00 -3.0000000e+00 -3.0000000e+00 -3.0000000e+00 -3.0000000e+00 -3.0000000e+00 -3.0000000e+00 -3.0000000e+00 -3.0000000e+00 -3.0000000e+00 -3.0000000e+00 -3.0000000e+00 -2.9500000e+00 -2.9500000e+00 -2.9500000e+00 -2.9500000e+00 -2.9500000e+00 -2.9500000e+00 -2.9500000e+00 -2.9500000e+00 -2.9500000e+00 -2.9500000e+00 -2.9500000e+00 -2.9500000e+00 -2.9500000e+00 -2.9500000e+00 -2.9500000e+00 -2.9500000e+00 -2.9500000e+00 -2.9500000e+00 -2.9500000e+00 -2.9500000e+00 
-2.9500000e+00 -2.9000000e+00 -2.9000000e+00 -2.9000000e+00 -2.9000000e+00 -2.9000000e+00 -2.9000000e+00 -2.9000000e+00 -2.9000000e+00 -2.9000000e+00 -2.9000000e+00 -2.9000000e+00 -2.9000000e+00 -2.9000000e+00 -2.9000000e+00 -2.9000000e+00 -2.9000000e+00 -2.9000000e+00 -2.9000000e+00 -2.9000000e+00 -2.9000000e+00 -2.9000000e+00 -2.8500000e+00 -2.8500000e+00 -2.8500000e+00 -2.8500000e+00 -2.8500000e+00 -2.8500000e+00 -2.8500000e+00 -2.8500000e+00 -2.8500000e+00 -2.8500000e+00 -2.8500000e+00 -2.8500000e+00 -2.8500000e+00 -2.8500000e+00 -2.8500000e+00 -2.8500000e+00 -2.8500000e+00 -2.8500000e+00 -2.8500000e+00 -2.8500000e+00 -2.8500000e+00 -2.8000000e+00 -2.8000000e+00 -2.8000000e+00 -2.8000000e+00 -2.8000000e+00 -2.8000000e+00 -2.8000000e+00 -2.8000000e+00 -2.8000000e+00 -2.8000000e+00 -2.8000000e+00 -2.8000000e+00 -2.8000000e+00 -2.8000000e+00 -2.8000000e+00 -2.8000000e+00 -2.8000000e+00 -2.8000000e+00 -2.8000000e+00 -2.8000000e+00 -2.8000000e+00 -2.7500000e+00 -2.7500000e+00 -2.7500000e+00 -2.7500000e+00 -2.7500000e+00 -2.7500000e+00 -2.7500000e+00 -2.7500000e+00 -2.7500000e+00 -2.7500000e+00 -2.7500000e+00 -2.7500000e+00 -2.7500000e+00 -2.7500000e+00 -2.7500000e+00 -2.7500000e+00 -2.7500000e+00 -2.7500000e+00 -2.7500000e+00 -2.7500000e+00 -2.7500000e+00 -2.7000000e+00 -2.7000000e+00 -2.7000000e+00 -2.7000000e+00 -2.7000000e+00 -2.7000000e+00 -2.7000000e+00 -2.7000000e+00 -2.7000000e+00 -2.7000000e+00 -2.7000000e+00 -2.7000000e+00 -2.7000000e+00 -2.7000000e+00 -2.7000000e+00 
-2.7000000e+00 -2.7000000e+00 -2.7000000e+00 -2.7000000e+00 -2.7000000e+00 -2.7000000e+00 -2.6500000e+00 -2.6500000e+00 -2.6500000e+00 -2.6500000e+00 -2.6500000e+00 -2.6500000e+00 -2.6500000e+00 -2.6500000e+00 -2.6500000e+00 -2.6500000e+00 -2.6500000e+00 -2.6500000e+00 -2.6500000e+00 -2.6500000e+00 -2.6500000e+00 -2.6500000e+00 -2.6500000e+00 -2.6500000e+00 -2.6500000e+00 -2.6500000e+00 -2.6500000e+00 -2.6000000e+00 -2.6000000e+00 -2.6000000e+00 -2.6000000e+00 -2.6000000e+00 -2.6000000e+00 -2.6000000e+00 -2.6000000e+00 -2.6000000e+00 -2.6000000e+00 -2.6000000e+00 -2.6000000e+00 -2.6000000e+00 -2.6000000e+00 -2.6000000e+00 -2.6000000e+00 -2.6000000e+00 -2.6000000e+00 -2.6000000e+00 -2.6000000e+00 -2.6000000e+00 -2.5500000e+00 -2.5500000e+00 -2.5500000e+00 -2.5500000e+00 -2.5500000e+00 -2.5500000e+00 -2.5500000e+00 -2.5500000e+00 -2.5500000e+00 -2.5500000e+00 -2.5500000e+00 -2.5500000e+00 -2.5500000e+00 -2.5500000e+00 -2.5500000e+00 -2.5500000e+00 -2.5500000e+00 -2.5500000e+00 -2.5500000e+00 -2.5500000e+00 -2.5500000e+00 -2.5000000e+00 -2.5000000e+00 -2.5000000e+00 -2.5000000e+00 -2.5000000e+00 -2.5000000e+00 -2.5000000e+00 -2.5000000e+00 -2.5000000e+00 -2.5000000e+00 -2.5000000e+00 -2.5000000e+00 -2.5000000e+00 -2.5000000e+00 -2.5000000e+00 -2.5000000e+00 -2.5000000e+00 -2.5000000e+00 -2.5000000e+00 -2.5000000e+00 -2.5000000e+00 -2.4500000e+00 -2.4500000e+00 -2.4500000e+00 -2.4500000e+00 -2.4500000e+00 -2.4500000e+00 -2.4500000e+00 -2.4500000e+00 -2.4500000e+00 -2.4500000e+00 
-2.4500000e+00 -2.4500000e+00 -2.4500000e+00 -2.4500000e+00 -2.4500000e+00 -2.4500000e+00 -2.4500000e+00 -2.4500000e+00 -2.4500000e+00 -2.4500000e+00 -2.4500000e+00 -2.4000000e+00 -2.4000000e+00 -2.4000000e+00 -2.4000000e+00 -2.4000000e+00 -2.4000000e+00 -2.4000000e+00 -2.4000000e+00 -2.4000000e+00 -2.4000000e+00 -2.4000000e+00 -2.4000000e+00 -2.4000000e+00 -2.4000000e+00 -2.4000000e+00 -2.4000000e+00 -2.4000000e+00 -2.4000000e+00 -2.4000000e+00 -2.4000000e+00 -2.4000000e+00 -2.3500000e+00 -2.3500000e+00 -2.3500000e+00 -2.3500000e+00 -2.3500000e+00 -2.3500000e+00 -2.3500000e+00 -2.3500000e+00 -2.3500000e+00 -2.3500000e+00 -2.3500000e+00 -2.3500000e+00 -2.3500000e+00 -2.3500000e+00 -2.3500000e+00 -2.3500000e+00 -2.3500000e+00 -2.3500000e+00 -2.3500000e+00 -2.3500000e+00 -2.3500000e+00 -2.3000000e+00 -2.3000000e+00 -2.3000000e+00 -2.3000000e+00 -2.3000000e+00 -2.3000000e+00 -2.3000000e+00 -2.3000000e+00 -2.3000000e+00 -2.3000000e+00 -2.3000000e+00 -2.3000000e+00 -2.3000000e+00 -2.3000000e+00 -2.3000000e+00 -2.3000000e+00 -2.3000000e+00 -2.3000000e+00 -2.3000000e+00 -2.3000000e+00 -2.3000000e+00 -2.2500000e+00 -2.2500000e+00 -2.2500000e+00 -2.2500000e+00 -2.2500000e+00 -2.2500000e+00 -2.2500000e+00 -2.2500000e+00 -2.2500000e+00 -2.2500000e+00 -2.2500000e+00 -2.2500000e+00 -2.2500000e+00 -2.2500000e+00 -2.2500000e+00 -2.2500000e+00 -2.2500000e+00 -2.2500000e+00 -2.2500000e+00 -2.2500000e+00 -2.2500000e+00 -2.2000000e+00 -2.2000000e+00 -2.2000000e+00 -2.2000000e+00 -2.2000000e+00 
-2.2000000e+00 -2.2000000e+00 -2.2000000e+00 -2.2000000e+00 -2.2000000e+00 -2.2000000e+00 -2.2000000e+00 -2.2000000e+00 -2.2000000e+00 -2.2000000e+00 -2.2000000e+00 -2.2000000e+00 -2.2000000e+00 -2.2000000e+00 -2.2000000e+00 -2.2000000e+00 -2.1500000e+00 -2.1500000e+00 -2.1500000e+00 -2.1500000e+00 -2.1500000e+00 -2.1500000e+00 -2.1500000e+00 -2.1500000e+00 -2.1500000e+00 -2.1500000e+00 -2.1500000e+00 -2.1500000e+00 -2.1500000e+00 -2.1500000e+00 -2.1500000e+00 -2.1500000e+00 -2.1500000e+00 -2.1500000e+00 -2.1500000e+00 -2.1500000e+00 -2.1500000e+00 -2.1000000e+00 -2.1000000e+00 -2.1000000e+00 -2.1000000e+00 -2.1000000e+00 -2.1000000e+00 -2.1000000e+00 -2.1000000e+00 -2.1000000e+00 -2.1000000e+00 -2.1000000e+00 -2.1000000e+00 -2.1000000e+00 -2.1000000e+00 -2.1000000e+00 -2.1000000e+00 -2.1000000e+00 -2.1000000e+00 -2.1000000e+00 -2.1000000e+00 -2.1000000e+00 -2.0500000e+00 -2.0500000e+00 -2.0500000e+00 -2.0500000e+00 -2.0500000e+00 -2.0500000e+00 -2.0500000e+00 -2.0500000e+00 -2.0500000e+00 -2.0500000e+00 -2.0500000e+00 -2.0500000e+00 -2.0500000e+00 -2.0500000e+00 -2.0500000e+00 -2.0500000e+00 -2.0500000e+00 -2.0500000e+00 -2.0500000e+00 -2.0500000e+00 -2.0500000e+00 -2.0000000e+00 -2.0000000e+00 -2.0000000e+00 -2.0000000e+00 -2.0000000e+00 -2.0000000e+00 -2.0000000e+00 -2.0000000e+00 -2.0000000e+00 -2.0000000e+00 -2.0000000e+00 -2.0000000e+00 -2.0000000e+00 -2.0000000e+00 -2.0000000e+00 -2.0000000e+00 -2.0000000e+00 -2.0000000e+00 -2.0000000e+00 -2.0000000e+00 -2.0000000e+00 
-1.9500000e+00 -1.9500000e+00 -1.9500000e+00 -1.9500000e+00 -1.9500000e+00 -1.9500000e+00 -1.9500000e+00 -1.9500000e+00 -1.9500000e+00 -1.9500000e+00 -1.9500000e+00 -1.9500000e+00 -1.9500000e+00 -1.9500000e+00 -1.9500000e+00 -1.9500000e+00 -1.9500000e+00 -1.9500000e+00 -1.9500000e+00 -1.9500000e+00 -1.9500000e+00 -1.9000000e+00 -1.9000000e+00 -1.9000000e+00 -1.9000000e+00 -1.9000000e+00 -1.9000000e+00 -1.9000000e+00 -1.9000000e+00 -1.9000000e+00 -1.9000000e+00 -1.9000000e+00 -1.9000000e+00 -1.9000000e+00 -1.9000000e+00 -1.9000000e+00 -1.9000000e+00 -1.9000000e+00 -1.9000000e+00 -1.9000000e+00 -1.9000000e+00 -1.9000000e+00 -1.8500000e+00 -1.8500000e+00 -1.8500000e+00 -1.8500000e+00 -1.8500000e+00 -1.8500000e+00 -1.8500000e+00 -1.8500000e+00 -1.8500000e+00 -1.8500000e+00 -1.8500000e+00 -1.8500000e+00 -1.8500000e+00 -1.8500000e+00 -1.8500000e+00 -1.8500000e+00 -1.8500000e+00 -1.8500000e+00 -1.8500000e+00 -1.8500000e+00 -1.8500000e+00 -1.8000000e+00 -1.8000000e+00 -1.8000000e+00 -1.8000000e+00 -1.8000000e+00 -1.8000000e+00 -1.8000000e+00 -1.8000000e+00 -1.8000000e+00 -1.8000000e+00 -1.8000000e+00 -1.8000000e+00 -1.8000000e+00 -1.8000000e+00 -1.8000000e+00 -1.8000000e+00 -1.8000000e+00 -1.8000000e+00 -1.8000000e+00 -1.8000000e+00 -1.8000000e+00 -1.7500000e+00 -1.7500000e+00 -1.7500000e+00 -1.7500000e+00 -1.7500000e+00 -1.7500000e+00 -1.7500000e+00 -1.7500000e+00 -1.7500000e+00 -1.7500000e+00 -1.7500000e+00 -1.7500000e+00 -1.7500000e+00 -1.7500000e+00 -1.7500000e+00 -1.7500000e+00 
-1.7500000e+00 -1.7500000e+00 -1.7500000e+00 -1.7500000e+00 -1.7500000e+00 -1.7000000e+00 -1.7000000e+00 -1.7000000e+00 -1.7000000e+00 -1.7000000e+00 -1.7000000e+00 -1.7000000e+00 -1.7000000e+00 -1.7000000e+00 -1.7000000e+00 -1.7000000e+00 -1.7000000e+00 -1.7000000e+00 -1.7000000e+00 -1.7000000e+00 -1.7000000e+00 -1.7000000e+00 -1.7000000e+00 -1.7000000e+00 -1.7000000e+00 -1.7000000e+00 -1.6500000e+00 -1.6500000e+00 -1.6500000e+00 -1.6500000e+00 -1.6500000e+00 -1.6500000e+00 -1.6500000e+00 -1.6500000e+00 -1.6500000e+00 -1.6500000e+00 -1.6500000e+00 -1.6500000e+00 -1.6500000e+00 -1.6500000e+00 -1.6500000e+00 -1.6500000e+00 -1.6500000e+00 -1.6500000e+00 -1.6500000e+00 -1.6500000e+00 -1.6500000e+00 -1.6000000e+00 -1.6000000e+00 -1.6000000e+00 -1.6000000e+00 -1.6000000e+00 -1.6000000e+00 -1.6000000e+00 -1.6000000e+00 -1.6000000e+00 -1.6000000e+00 -1.6000000e+00 -1.6000000e+00 -1.6000000e+00 -1.6000000e+00 -1.6000000e+00 -1.6000000e+00 -1.6000000e+00 -1.6000000e+00 -1.6000000e+00 -1.6000000e+00 -1.6000000e+00 -1.5500000e+00 -1.5500000e+00 -1.5500000e+00 -1.5500000e+00 -1.5500000e+00 -1.5500000e+00 -1.5500000e+00 -1.5500000e+00 -1.5500000e+00 -1.5500000e+00 -1.5500000e+00 -1.5500000e+00 -1.5500000e+00 -1.5500000e+00 -1.5500000e+00 -1.5500000e+00 -1.5500000e+00 -1.5500000e+00 -1.5500000e+00 -1.5500000e+00 -1.5500000e+00 -1.5000000e+00 -1.5000000e+00 -1.5000000e+00 -1.5000000e+00 -1.5000000e+00 -1.5000000e+00 -1.5000000e+00 -1.5000000e+00 -1.5000000e+00 -1.5000000e+00 -1.5000000e+00 